ITEM: TIMESTEP 
0 
ITEM: NUMBER OF ATOMS 
108 
ITEM: BOX BOUNDS pp pp pp 
0.00 4.937000 
0.00 4.937000 
0.00 4.937000 
ITEM: ATOMS id type x y z vx vy vz fx fy fz 
1 1 -0.000089 0.000012 -0.000019 -0.889796 0.122717 -0.194267 0.000000 0.000000 0.000000 
2 1 0.822746 0.822948 0.000222 -0.870528 1.151362 2.215232 -0.000000 -0.000000 0.000000 
3 1 0.822798 0.000160 0.822742 -0.353949 1.597830 -0.912128 -0.000000 0.000000 -0.000000 
4 1 -0.000123 0.822766 0.822923 -1.233278 -0.668592 0.898660 0.000000 -0.000000 -0.000000 
5 1 -0.000033 0.000011 1.645636 -0.331528 0.105392 -0.301914 0.000000 0.000000 0.000000 
6 1 0.822731 0.822907 1.645548 -1.021053 0.738045 -1.189937 -0.000000 -0.000000 0.000000 
7 1 0.822784 0.000012 2.468444 -0.490729 0.120673 -0.554799 -0.000000 0.000000 -0.000000 
8 1 -0.000126 0.822719 2.468509 -1.256101 -1.140146 0.091507 0.000000 -0.000000 -0.000000 
9 1 0.000018 -0.000139 3.291278 0.179455 -1.393927 -0.553167 0.000000 0.000000 0.000000 
10 1 0.822824 0.822739 3.291298 -0.088019 -0.938540 -0.352264 -0.000000 -0.000000 0.000000 
11 1 0.822710 -0.000020 4.114131 -1.234497 -0.199962 -0.358057 -0.000000 0.000000 -0.000000 
12 1 0.000024 0.822694 4.114110 0.240083 -1.390604 -0.562292 0.000000 -0.000000 -0.000000 
13 1 0.000088 1.645673 0.000014 0.877598 0.064848 0.140032 0.000000 0.000000 0.000000 
14 1 0.822899 2.468460 0.000015 0.657995 -0.393762 0.152766 -0.000000 -0.000000 0.000000 
15 1 0.822769 1.645630 0.822888 -0.647284 -0.362436 0.549492 -0.000000 0.000000 -0.000000 
16 1 0.000001 2.468369 0.822859 0.009643 -1.307635 0.256195 0.000000 -0.000000 -0.000000 
17 1 0.000025 1.645670 1.645546 0.249480 0.032580 -1.206341 0.000000 0.000000 0.000000 
18 1 0.822715 2.468511 1.645727 -1.186314 0.114524 0.605414 -0.000000 -0.000000 0.000000 
19 1 0.822708 1.645666 2.468531 -1.252047 -0.010218 0.308532 -0.000000 0.000000 -0.000000 
20 1 -0.000008 2.468590 2.468656 -0.081229 0.900217 1.558156 0.000000 -0.000000 -0.000000 
21 1 -0.000020 1.645670 3.291355 -0.198105 0.038988 0.218962 0.000000 0.000000 0.000000 
22 1 0.822784 2.468730 3.291296 -0.493445 2.303068 -0.373406 -0.000000 -0.000000 0.000000 
23 1 0.822857 1.645878 4.114148 0.233154 2.109766 -0.187119 -0.000000 0.000000 -0.000000 
24 1 0.000014 2.468509 4.114179 0.139513 0.095378 0.125817 0.000000 -0.000000 -0.000000 
25 1 0.000011 3.291207 -0.000114 0.105499 -1.260795 -1.137633 0.000000 0.000000 0.000000 
26 1 0.822854 4.114108 0.000130 0.202972 -0.581338 1.296507 -0.000000 -0.000000 0.000000 
27 1 0.823017 3.291318 0.822761 1.842095 -0.152475 -0.720651 -0.000000 0.000000 -0.000000 
28 1 -0.000103 4.114178 0.822935 -1.028207 0.120578 1.014409 0.000000 -0.000000 -0.000000 
29 1 0.000033 3.291423 1.645774 0.334560 0.899671 1.077877 0.000000 0.000000 0.000000 
30 1 0.822732 4.114464 1.645676 -1.015502 2.972500 0.097834 -0.000000 -0.000000 0.000000 
31 1 0.822857 3.291343 2.468416 0.232218 0.094011 -0.834150 -0.000000 0.000000 -0.000000 
32 1 -0.000066 4.114114 2.468405 -0.663882 -0.521920 -0.948348 0.000000 -0.000000 -0.000000 
33 1 0.000021 3.291234 3.291365 0.210171 -0.988798 0.316207 0.000000 0.000000 0.000000 
34 1 0.822857 4.114207 3.291263 0.234388 0.402614 -0.698660 -0.000000 -0.000000 0.000000 
35 1 0.822737 3.291193 4.114194 -0.962895 -1.397020 0.276006 -0.000000 0.000000 -0.000000 
36 1 -0.000054 4.114118 4.114234 -0.541751 -0.483167 0.675501 0.000000 -0.000000 -0.000000 
37 1 1.645540 -0.000040 -0.000090 -1.268195 -0.404057 -0.903355 0.000000 0.000000 0.000000 
38 1 2.468523 0.822970 0.000029 0.231967 1.366922 0.290950 -0.000000 -0.000000 0.000000 
39 1 2.468411 -0.000042 0.822713 -0.884000 -0.420308 -1.200877 -0.000000 0.000000 -0.000000 
40 1 1.645746 0.822811 0.822922 0.795581 -0.222524 0.886315 0.000000 -0.000000 -0.000000 
41 1 1.645896 0.000088 1.645681 2.297880 0.882993 0.149157 0.000000 0.000000 0.000000 
42 1 2.468476 0.822715 1.645588 -0.238042 -1.180353 -0.787655 -0.000000 -0.000000 0.000000 
43 1 2.468524 0.000266 2.468741 0.244503 2.658802 2.413706 -0.000000 0.000000 -0.000000 
44 1 1.645553 0.822760 2.468563 -1.133097 -0.733443 0.633836 0.000000 -0.000000 -0.000000 
45 1 1.645900 -0.000131 3.291602 2.336086 -1.313659 2.691827 0.000000 0.000000 0.000000 
46 1 2.468681 0.822723 3.291301 1.813150 -1.101499 -0.325551 -0.000000 -0.000000 0.000000 
47 1 2.468404 -0.000134 4.114172 -0.956053 -1.336705 0.056382 -0.000000 0.000000 -0.000000 
48 1 1.645664 0.822693 4.114174 -0.026723 -1.399658 0.075112 0.000000 -0.000000 -0.000000 
49 1 1.645595 1.645534 0.000236 -0.714202 -1.326228 2.356325 0.000000 0.000000 0.000000 
50 1 2.468524 2.468412 0.000150 0.246240 -0.879391 1.503596 -0.000000 -0.000000 0.000000 
51 1 2.468400 1.645609 0.822854 -0.994552 -0.579627 0.208534 -0.000000 0.000000 -0.000000 
52 1 1.645650 2.468493 0.822819 -0.162495 -0.069712 -0.145868 0.000000 -0.000000 -0.000000 
53 1 1.645615 1.645716 1.645866 -0.512378 0.495565 1.998674 0.000000 0.000000 0.000000 
54 1 2.468374 2.468725 1.645594 -1.255870 2.255028 -0.729765 -0.000000 -0.000000 0.000000 
55 1 2.468521 1.645698 2.468741 0.212186 0.311374 2.416495 -0.000000 0.000000 -0.000000 
56 1 1.645549 2.468538 2.468433 -1.174473 0.382076 -0.668857 0.000000 -0.000000 -0.000000 
57 1 1.645880 1.645588 3.291264 2.135589 -0.786815 -0.693313 0.000000 0.000000 0.000000 
58 1 2.468773 2.468473 3.291346 2.729272 -0.269632 0.132042 -0.000000 -0.000000 0.000000 
59 1 2.468517 1.645530 4.114179 0.172280 -1.362334 0.121571 -0.000000 0.000000 -0.000000 
60 1 1.645760 2.468416 4.114185 0.937199 -0.842087 0.184156 0.000000 -0.000000 -0.000000 
61 1 1.645691 3.291338 0.000025 0.248843 0.053265 0.246711 0.000000 0.000000 0.000000 
62 1 2.468372 4.114169 0.000008 -1.274421 0.025896 0.081781 -0.000000 -0.000000 0.000000 
63 1 2.468480 3.291501 0.822815 -0.197641 1.683500 -0.186534 -0.000000 0.000000 -0.000000 
64 1 1.645692 4.114287 0.822747 0.249516 1.207412 -0.867069 0.000000 -0.000000 -0.000000 
65 1 1.645649 3.291328 1.645662 -0.171302 -0.051738 -0.043643 0.000000 0.000000 0.000000 
66 1 2.468433 4.114090 1.645627 -0.670423 -0.768011 -0.394009 -0.000000 -0.000000 0.000000 
67 1 2.468523 3.291430 2.468386 0.232302 0.965925 -1.138553 -0.000000 0.000000 -0.000000 
68 1 1.645668 4.114170 2.468474 0.013982 0.032278 -0.256878 0.000000 -0.000000 -0.000000 
69 1 1.645709 3.291343 3.291224 0.422825 0.098103 -1.095060 0.000000 0.000000 0.000000 
70 1 2.468395 4.114039 3.291348 -1.051640 -1.273023 0.146799 -0.000000 -0.000000 0.000000 
71 1 2.468524 3.291195 4.114169 0.240837 -1.381741 0.026535 -0.000000 0.000000 -0.000000 
72 1 1.645876 4.114127 4.114129 2.089438 -0.396908 -0.376426 0.000000 -0.000000 -0.000000 
73 1 3.291357 -0.000090 -0.000057 0.234344 -0.904279 -0.569627 0.000000 0.000000 0.000000 
74 1 4.114174 0.822843 -0.000121 0.075513 0.102004 -1.208602 -0.000000 -0.000000 0.000000 
75 1 4.114185 0.000012 0.822789 0.188725 0.119305 -0.441204 -0.000000 0.000000 -0.000000 
76 1 3.291206 0.822846 0.822801 -1.270680 0.123454 -0.318803 0.000000 -0.000000 -0.000000 
77 1 3.291465 -0.000128 1.645617 1.319563 -1.278767 -0.494480 0.000000 0.000000 0.000000 
78 1 4.114095 0.822967 1.645681 -0.709049 1.340401 0.147821 -0.000000 -0.000000 0.000000 
79 1 4.114180 0.000198 2.468501 0.134007 1.979419 0.007788 -0.000000 0.000000 -0.000000 
80 1 3.291289 0.822757 2.468697 -0.444237 -0.766894 1.975520 0.000000 -0.000000 -0.000000 
81 1 3.291500 -0.000120 3.291483 1.672425 -1.202142 1.503132 0.000000 0.000000 0.000000 
82 1 4.114311 0.823054 3.291236 1.441960 2.211358 -0.976019 -0.000000 -0.000000 0.000000 
83 1 4.114193 0.000140 4.114198 0.269829 1.399111 0.315226 -0.000000 0.000000 -0.000000 
84 1 3.291487 0.823048 4.114163 1.537703 2.145557 -0.035238 0.000000 -0.000000 -0.000000 
85 1 3.291222 1.645528 0.000020 -1.109265 -1.381851 0.195375 0.000000 0.000000 0.000000 
86 1 4.114126 2.468415 0.000007 -0.404852 -0.845235 0.065596 -0.000000 -0.000000 0.000000 
87 1 4.114261 1.645885 0.822713 0.947696 2.188061 -1.202902 -0.000000 0.000000 -0.000000 
88 1 3.291350 2.468522 0.822861 0.169646 0.220223 0.272705 0.000000 -0.000000 -0.000000 
89 1 3.291248 1.645526 1.645667 -0.852857 -1.400756 0.003225 0.000000 0.000000 0.000000 
90 1 4.114115 2.468700 1.645560 -0.511028 2.006160 -1.065025 -0.000000 -0.000000 0.000000 
91 1 4.114289 1.645671 2.468406 1.228339 0.041564 -0.935260 -0.000000 0.000000 -0.000000 
92 1 3.291294 2.468384 2.468401 -0.389929 -1.159571 -0.984017 0.000000 -0.000000 -0.000000 
93 1 3.291258 1.645658 3.291345 -0.750859 -0.089373 0.115800 0.000000 0.000000 0.000000 
94 1 4.114185 2.468496 3.291232 0.183650 -0.038413 -1.015451 -0.000000 -0.000000 0.000000 
95 1 4.114088 1.645532 4.114062 -0.781034 -1.348713 -1.048033 -0.000000 0.000000 -0.000000 
96 1 3.291337 2.468511 4.114086 0.036643 0.115819 -0.799424 0.000000 -0.000000 -0.000000 
97 1 3.291354 3.291338 0.000012 0.206277 0.052708 0.116242 0.000000 0.000000 0.000000 
98 1 4.114408 4.114055 0.000007 2.413465 -1.111692 0.069224 -0.000000 -0.000000 0.000000 
99 1 4.114417 3.291276 0.822860 2.508571 -0.576174 0.269909 -0.000000 0.000000 -0.000000 
100 1 3.291207 4.114034 0.822713 -1.265952 -1.327938 -1.206800 0.000000 -0.000000 -0.000000 
101 1 3.291358 3.291345 1.645728 0.250998 0.121611 0.612943 0.000000 0.000000 0.000000 
102 1 4.114309 4.114166 1.645782 1.423622 0.000869 1.155381 -0.000000 -0.000000 0.000000 
103 1 4.114040 3.291345 2.468388 -1.267541 0.122449 -1.114515 -0.000000 0.000000 -0.000000 
104 1 3.291289 4.114391 2.468521 -0.442812 2.247892 0.215180 0.000000 -0.000000 -0.000000 
105 1 3.291265 3.291539 3.291221 -0.682404 2.058128 -1.123582 0.000000 0.000000 0.000000 
106 1 4.114064 4.114130 3.291353 -1.023489 -0.361339 0.200980 -0.000000 -0.000000 0.000000 
107 1 4.114042 3.291346 4.114111 -1.239801 0.123940 -0.558648 -0.000000 0.000000 -0.000000 
108 1 3.291536 4.114162 4.114192 2.029956 -0.040005 0.258520 0.000000 -0.000000 -0.000000 
ITEM: TIMESTEP 
250 
ITEM: NUMBER OF ATOMS 
108 
ITEM: BOX BOUNDS pp pp pp 
0.00 4.937000 
0.00 4.937000 
0.00 4.937000 
ITEM: ATOMS id type x y z vx vy vz fx fy fz 
1 1 -0.022036 0.003056 -0.004749 -0.853953 0.120568 -0.178964 2.940150 -0.069879 1.252127 
2 1 0.801080 0.851450 0.054992 -0.859201 1.117002 2.142505 0.881830 -2.893926 -5.951996 
3 1 0.813990 0.039751 0.800210 -0.349710 1.553660 -0.879499 0.266279 -3.906031 2.736683 
4 1 -0.030970 0.806325 0.845090 -1.234864 -0.635423 0.862359 -0.092913 2.777198 -3.025644 
5 1 -0.008472 0.002861 1.638168 -0.351151 0.132673 -0.291912 -1.878477 2.472249 0.901850 
6 1 0.797441 0.841099 1.616187 -0.992824 0.706602 -1.142960 2.296348 -2.657515 3.933262 
7 1 0.810666 0.003090 2.454712 -0.476026 0.129467 -0.538116 0.748615 0.981014 1.478620 
8 1 -0.030967 0.794595 2.470598 -1.183725 -1.092742 0.066352 6.832027 4.242478 -2.288040 
9 1 0.004260 -0.034828 3.277506 0.150504 -1.375146 -0.546625 -2.314461 1.491894 0.482657 
10 1 0.820627 0.799416 3.282616 -0.089290 -0.922612 -0.337642 -0.357234 1.173851 1.157419 
11 1 0.792137 -0.005195 4.105375 -1.199878 -0.221687 -0.336383 2.841235 -1.887601 1.502791 
12 1 0.006115 0.788412 4.100123 0.249450 -1.332680 -0.554865 0.568379 4.775201 0.442660 
13 1 0.021773 1.647238 0.003317 0.847039 0.059878 0.116905 -2.516378 -0.106781 -1.818076 
14 1 0.839285 2.458647 0.003921 0.650522 -0.389689 0.163623 -0.588023 0.391481 0.963541 
15 1 0.806804 1.636757 0.836696 -0.620725 -0.337264 0.557424 2.257808 2.520731 0.569073 
16 1 0.000553 2.436254 0.829114 0.049358 -1.236583 0.237180 3.705543 6.216438 -1.716173 
17 1 0.006013 1.646540 1.615822 0.218900 0.037196 -1.154135 -2.638372 0.059643 4.323737 
18 1 0.793219 2.471366 1.660681 -1.167469 0.113293 0.584074 1.443801 -0.132961 -1.668992 
19 1 0.791481 1.645378 2.476312 -1.243624 -0.014006 0.315466 0.610317 -0.301573 0.384852 
20 1 -0.002107 2.490934 2.507040 -0.087942 0.880607 1.489039 -0.317695 -1.690839 -5.831635 
21 1 -0.004721 1.646772 3.296848 -0.166359 0.056607 0.221711 2.901495 1.866212 0.304962 
22 1 0.810772 2.525643 3.282008 -0.453437 2.223120 -0.368330 3.553060 -6.669383 0.305102 
23 1 0.828768 1.698048 4.109368 0.241865 2.044090 -0.199543 0.523532 -4.925542 -1.060211 
24 1 0.003175 2.470689 4.117249 0.100210 0.069501 0.115894 -3.256342 -2.344100 -0.959258 
25 1 0.002702 3.259746 -0.028171 0.110932 -1.254331 -1.091866 0.277479 0.454944 3.749469 
26 1 0.827709 4.099686 0.032148 0.175644 -0.567751 1.250445 -2.385372 1.159538 -3.589611 
27 1 0.868504 3.287557 0.805082 1.776541 -0.147895 -0.680906 -5.036202 0.152606 3.174833 
28 1 -0.025306 4.117201 0.848049 -0.968017 0.123875 0.986491 4.940865 0.619436 -2.045883 
29 1 0.008533 3.313615 1.672402 0.349654 0.862346 1.039568 1.060696 -3.309954 -3.200243 
30 1 0.797776 4.188188 1.647875 -0.963764 2.901502 0.067709 4.270240 -5.965792 -2.599907 
31 1 0.828583 3.293963 2.447675 0.223141 0.126474 -0.820021 -0.684846 2.667992 1.253906 
32 1 -0.016525 4.101239 2.445209 -0.643859 -0.499442 -0.882746 2.248547 2.131103 6.097553 
33 1 0.004990 3.267097 3.299196 0.173971 -0.916163 0.310051 -3.331525 6.430038 -0.063062 
34 1 0.828733 4.124035 3.273957 0.237191 0.375177 -0.680933 0.354637 -2.093630 1.220111 
35 1 0.799157 3.256725 4.121080 -0.904621 -1.342970 0.275795 4.677311 4.342493 0.218125 
36 1 -0.013434 4.102058 4.130821 -0.520754 -0.480673 0.637870 1.956255 0.235395 -3.363716 
37 1 1.613970 -0.009915 -0.022561 -1.252943 -0.378923 -0.890185 1.116826 1.726356 1.010414 
38 1 2.474101 0.856458 0.007135 0.202309 1.283466 0.271899 -2.994649 -7.096610 -1.386138 
39 1 2.446647 -0.010469 0.792745 -0.843395 -0.409221 -1.195361 3.391893 1.156416 0.316517 
40 1 1.665347 0.817238 0.844963 0.759488 -0.224859 0.872000 -3.204633 -0.386235 -1.215365 
41 1 1.702702 0.021864 1.649464 2.220016 0.842216 0.157477 -6.619699 -4.198411 0.967390 
42 1 2.462792 0.793540 1.626320 -0.201286 -1.138530 -0.738809 3.863014 3.826587 3.728684 
43 1 2.474588 0.065762 2.528469 0.234429 2.533474 2.332833 -1.591161 -12.010303 -8.169078 
44 1 1.617435 0.804558 2.484334 -1.108825 -0.717119 0.623892 1.864347 1.367489 -0.964273 
45 1 1.703487 -0.032661 3.358070 2.232457 -1.273967 2.585168 -9.669273 3.679835 -10.225909 
46 1 2.513618 0.795499 3.283916 1.763926 -1.054205 -0.220786 -4.424018 5.714334 11.255726 
47 1 2.445344 -0.033162 4.115893 -0.847827 -1.290208 0.101139 10.325460 3.876188 5.078751 
48 1 1.644892 0.788121 4.116126 -0.037839 -1.349867 0.083606 -0.725969 4.018125 0.630455 
49 1 1.627838 1.612645 0.058565 -0.703479 -1.293285 2.287719 0.728009 2.865155 -5.515424 
50 1 2.474635 2.446532 0.037450 0.240621 -0.866267 1.469411 -0.483565 1.153138 -2.710628 
51 1 2.443701 1.631359 0.828361 -0.973946 -0.550739 0.244415 1.845208 2.360365 3.049530 
52 1 1.641560 2.466693 0.819354 -0.165447 -0.076952 -0.124759 -0.183997 -0.665560 1.607094 
53 1 1.632919 1.657947 1.695483 -0.499403 0.475763 1.956853 0.970169 -1.767564 -3.404544 
54 1 2.437282 2.524543 1.627449 -1.218627 2.190193 -0.719363 3.201722 -5.057551 0.633516 
55 1 2.473785 1.653268 2.528286 0.211022 0.284988 2.309561 0.603103 -2.266075 -9.406062 
56 1 1.616508 2.478063 2.452012 -1.138180 0.379503 -0.633784 2.657314 -0.090242 2.763030 
57 1 1.698687 1.626075 3.274228 2.064457 -0.770129 -0.653047 -6.204327 1.049107 4.151880 
58 1 2.536298 2.462024 3.294536 2.644173 -0.232566 0.119691 -7.093269 3.423188 -0.931044 
59 1 2.472707 1.611770 4.117213 0.158453 -1.326550 0.118856 -1.103303 2.937357 -0.564516 
60 1 1.669187 2.447469 4.118742 0.937521 -0.829259 0.179176 0.136933 1.075761 -0.312368 
61 1 1.651960 3.292556 0.005987 0.255179 0.039610 0.221527 0.628593 -1.121957 -2.153013 
62 1 2.436890 4.114743 0.001820 -1.228692 0.017834 0.055061 3.826869 -0.552922 -2.012680 
63 1 2.463407 3.333079 0.818126 -0.216440 1.619344 -0.190128 -2.065024 -5.767282 -0.381007 
64 1 1.651690 4.144325 0.801437 0.220217 1.188949 -0.822818 -2.517819 -1.642580 3.675016 
65 1 1.641133 3.290298 1.644446 -0.199561 -0.020180 -0.057939 -2.391914 2.612726 -1.062001 
66 1 2.451874 4.095289 1.635874 -0.646644 -0.721746 -0.384855 1.873816 3.604034 0.419425 
67 1 2.474297 3.315327 2.440186 0.228149 0.936921 -1.106330 -0.355161 -2.217932 2.747994 
68 1 1.646031 4.115201 2.462030 0.014916 0.058030 -0.259784 -0.030112 1.918025 -0.271016 
69 1 1.656222 3.293620 3.264072 0.414949 0.077166 -1.069673 -0.812324 -1.720184 1.837629 
70 1 2.442636 4.082484 3.294911 -0.986740 -1.241469 0.131077 5.515510 2.443583 -1.770902 
71 1 2.474625 3.256910 4.114918 0.249366 -1.351355 0.036521 0.533092 2.391895 0.764011 
72 1 1.697268 4.103821 4.104977 1.987497 -0.447971 -0.342491 -8.574824 -5.081820 3.295360 
73 1 3.297173 -0.022495 -0.014247 0.229215 -0.880621 -0.562679 -0.425620 1.832619 0.695275 
74 1 4.116100 0.825521 -0.029859 0.081316 0.117735 -1.150498 0.675028 1.374182 4.925833 
75 1 4.118663 0.002909 0.811800 0.160311 0.109112 -0.436918 -2.266330 -0.834790 0.245203 
76 1 3.259839 0.825753 0.814842 -1.224592 0.100517 -0.316232 3.503961 -2.089277 0.409992 
77 1 3.324086 -0.031798 1.633208 1.278399 -1.243278 -0.502111 -2.915790 2.842881 -0.929821 
78 1 4.096389 0.856199 1.649200 -0.705686 1.305973 0.126942 0.439579 -2.996584 -1.671558 
79 1 4.117428 0.049147 2.468751 0.117754 1.912309 0.013793 -2.046331 -6.002674 0.388115 
80 1 3.280567 0.803873 2.517553 -0.391685 -0.729527 1.909914 5.453168 3.522145 -5.730021 
81 1 3.332966 -0.029746 3.328988 1.628482 -1.148579 1.492243 -4.018118 4.775803 -1.214388 
82 1 4.149951 0.877717 3.267065 1.389540 2.135215 -0.948730 -4.889188 -6.533135 2.188663 
83 1 4.120995 0.034774 4.121890 0.275542 1.356736 0.292561 0.299127 -3.675110 -1.870306 
84 1 3.329402 0.875801 4.113135 1.469389 2.034064 -0.054634 -6.662332 -10.209364 -1.853203 
85 1 3.263871 1.611541 0.004956 -1.061241 -1.311944 0.203314 4.358078 6.234833 0.907118 
86 1 4.104019 2.447488 0.001341 -0.403295 -0.817465 0.026256 0.095885 2.849427 -3.715606 
87 1 4.137531 1.699853 0.792953 0.896008 2.096530 -1.163131 -4.476338 -8.166269 3.688728 
88 1 3.295430 2.474038 0.829675 0.150609 0.221778 0.272184 -1.519202 0.160854 -0.076343 
89 1 3.269927 1.610878 1.645766 -0.854271 -1.358079 0.006078 -0.366136 3.239179 0.329637 
90 1 4.101583 2.518248 1.619290 -0.481303 1.932904 -1.021719 2.512499 -6.139335 3.679971 
91 1 4.144707 1.646912 2.445066 1.195576 0.067196 -0.930472 -2.359837 2.328507 0.382271 
92 1 3.281690 2.439638 2.443846 -0.371923 -1.131212 -0.980389 1.586232 2.194616 0.029181 
93 1 3.272956 1.643431 3.294158 -0.692356 -0.090039 0.107733 5.182717 -0.346369 -0.378290 
94 1 4.118489 2.467544 3.266054 0.148967 -0.038126 -0.989956 -2.898559 -0.089053 2.169968 
95 1 4.095026 1.612506 4.088160 -0.719191 -1.257768 -1.012053 6.283451 8.905251 2.975278 
96 1 3.292381 2.471247 4.094389 0.054848 0.096561 -0.763306 1.959802 -1.591096 3.239697 
97 1 3.296517 3.292552 0.002874 0.206770 0.039020 0.109393 0.001073 -1.321244 -0.812138 
98 1 4.174136 4.086424 0.001808 2.338937 -1.093631 0.078873 -6.364549 1.274977 1.016916 
99 1 4.176590 3.277032 0.829454 2.445767 -0.556519 0.248514 -4.800240 1.698142 -2.246590 
100 1 3.260119 4.081170 0.792808 -1.200006 -1.284193 -1.175453 5.289852 4.208895 2.525050 
101 1 3.297515 3.294630 1.660749 0.233819 0.151102 0.575596 -1.908744 2.434297 -3.253326 
102 1 4.149347 4.114248 1.674315 1.355533 0.008918 1.112779 -5.961815 0.813801 -3.644702 
103 1 4.082549 3.294414 2.440957 -1.242910 0.122817 -1.061260 2.194519 -0.059614 4.625637 
104 1 3.280226 4.170307 2.473808 -0.442367 2.214022 0.205279 -0.039073 -2.780580 -0.610696 
105 1 3.274329 3.342500 3.263198 -0.668370 1.999755 -1.115013 1.022430 -4.716842 0.778145 
106 1 4.089043 4.105144 3.296153 -0.952691 -0.357281 0.173020 6.289554 0.056836 -2.469596 
107 1 4.083387 3.294170 4.100179 -1.197957 0.090066 -0.554648 3.620132 -2.960953 0.298197 
108 1 3.341688 4.113128 4.120835 1.959463 -0.042740 0.281946 -5.644332 0.002183 2.230366 
ITEM: TIMESTEP 
500 
ITEM: NUMBER OF ATOMS 
108 
ITEM: BOX BOUNDS pp pp pp 
0.00 4.937000 
0.00 4.937000 
0.00 4.937000 
ITEM: ATOMS id type x y z vx vy vz fx fy fz 
1 1 -0.042123 0.006079 -0.008689 -0.740668 0.122582 -0.131277 6.116718 0.250191 2.540943 
2 1 0.779965 0.878096 0.105878 -0.826963 1.000691 1.894541 1.686013 -6.458974 -14.576559 
3 1 0.805344 0.076717 0.779492 -0.341307 1.375367 -0.760208 0.416862 -11.015304 7.234605 
4 1 -0.061846 0.791671 0.865326 -1.233369 -0.522861 0.742336 0.366993 6.372708 -6.647621 
5 1 -0.018242 0.007376 1.631295 -0.448827 0.246300 -0.252061 -6.479967 6.933380 2.394785 
6 1 0.773614 0.857535 1.589367 -0.903108 0.591462 -0.981940 4.928943 -6.916238 9.195484 
7 1 0.798953 0.006903 2.442064 -0.463515 0.188183 -0.456892 0.181806 4.113573 5.693709 
8 1 -0.057052 0.769379 2.471140 -0.841922 -0.889913 -0.039640 22.112262 12.938362 -6.456833 
9 1 0.007051 -0.068580 3.264025 0.063901 -1.319173 -0.530843 -4.605055 2.995939 0.751423 
10 1 0.818133 0.776808 3.274680 -0.117027 -0.883178 -0.291432 -2.043625 1.939973 2.654736 
11 1 0.763388 -0.011617 4.097520 -1.086279 -0.304137 -0.289836 6.373176 -4.939143 2.139577 
12 1 0.012526 0.757214 4.086369 0.262709 -1.138371 -0.547158 0.425625 11.107011 0.058043 
13 1 0.041832 1.648842 0.005473 0.744474 0.076153 0.048180 -5.894095 1.774580 -3.721426 
14 1 0.855306 2.449102 0.008459 0.629059 -0.370849 0.205229 -1.123004 1.173632 2.422390 
15 1 0.792319 1.629673 0.850839 -0.524652 -0.204230 0.574634 5.669426 8.843762 0.747251 
16 1 0.003694 2.408311 0.834251 0.235492 -0.955281 0.163972 12.083880 17.121350 -4.193713 
17 1 0.010259 1.647363 1.588907 0.104282 0.022201 -0.975442 -6.822125 -1.487209 10.321462 
18 1 0.764612 2.474124 1.674603 -1.116760 0.105938 0.524579 2.579606 -0.495162 -3.016412 
19 1 0.760627 1.644904 2.484285 -1.223254 -0.024972 0.320195 1.022669 -0.566867 -0.145276 
20 1 -0.004340 2.512132 2.541605 -0.086939 0.802624 1.242411 0.572750 -4.818571 -14.388656 
21 1 -0.007427 1.649246 3.302569 -0.025912 0.163508 0.239916 8.930304 7.392885 1.293646 
22 1 0.801219 2.578208 3.272861 -0.280767 1.945123 -0.366030 11.079433 -16.062346 -0.315566 
23 1 0.834956 1.747179 4.103890 0.251365 1.871561 -0.245108 0.111890 -8.809943 -2.692920 
24 1 0.004242 2.471289 4.119645 -0.031207 -0.038559 0.066645 -7.412552 -6.631118 -3.256656 
25 1 0.005510 3.228587 -0.053798 0.110439 -1.235558 -0.938345 -0.510263 1.190803 8.848664 
26 1 0.831024 4.086024 0.061913 0.077067 -0.518400 1.117134 -5.573775 2.891386 -7.118954 
27 1 0.910845 3.283849 0.789437 1.592754 -0.151425 -0.555691 -9.720850 -0.495954 7.018769 
28 1 -0.047368 4.120707 0.871921 -0.774923 0.166184 0.918638 10.553757 3.001919 -3.286381 
29 1 0.017661 3.333580 1.696904 0.381735 0.711161 0.899687 1.379895 -9.265728 -8.481259 
30 1 0.775597 4.257969 1.648310 -0.787121 2.643760 -0.052778 10.252757 -15.421054 -7.601303 
31 1 0.833900 3.298272 2.427762 0.200931 0.229743 -0.765039 -1.018927 5.601128 3.279287 
32 1 -0.031278 4.089835 2.426234 -0.505524 -0.394942 -0.582562 9.900360 6.631351 19.317168 
33 1 0.007656 3.247249 3.307146 0.010951 -0.628472 0.337628 -10.425950 17.313793 2.786766 
34 1 0.834867 4.132570 3.257378 0.257439 0.301174 -0.643896 1.334940 -3.783801 1.674273 
35 1 0.778569 3.225026 4.128156 -0.720596 -1.173374 0.295271 10.276223 9.348053 1.408992 
36 1 -0.025461 4.090159 4.145136 -0.424647 -0.469404 0.482341 6.158406 0.707079 -9.660706 
37 1 1.583082 -0.018792 -0.044402 -1.215326 -0.331294 -0.853570 1.859165 1.813476 1.946406 
38 1 2.477512 0.885277 0.013410 0.037529 0.979260 0.227829 -11.208286 -17.922399 -2.011937 
39 1 2.427070 -0.020062 0.762955 -0.705233 -0.345660 -1.187759 7.842509 4.268648 0.353957 
40 1 1.682833 0.811344 0.866223 0.619202 -0.254114 0.822979 -8.279781 -2.232558 -2.698137 
41 1 1.755063 0.040578 1.653943 1.921717 0.606463 0.211304 -18.536978 -16.288003 3.582484 
42 1 2.459975 0.767102 1.609375 0.024033 -0.936939 -0.604335 15.820622 13.708190 6.953133 
43 1 2.479223 0.122478 2.581850 0.098107 1.868304 1.817470 -11.029202 -45.410532 -37.714740 
44 1 1.590492 0.787225 2.499442 -1.039067 -0.663456 0.576798 3.802607 2.928813 -2.953550 
45 1 1.754165 -0.062634 3.417094 1.723551 -1.092013 2.022064 -34.069429 11.596598 -38.644926 
46 1 2.555622 0.772991 3.285204 1.569172 -0.642451 0.484771 -11.190529 31.142062 50.825526 
47 1 2.429742 -0.063589 4.121698 -0.289884 -1.117721 0.448560 37.651912 10.429086 26.071022 
48 1 1.643690 0.756101 4.118457 -0.058942 -1.194112 0.103783 -0.915388 8.525066 0.883006 
49 1 1.610519 1.581632 0.113390 -0.680687 -1.170973 2.073996 1.109588 7.144398 -11.769530 
50 1 2.480435 2.425400 0.073051 0.220878 -0.818034 1.368306 -1.115780 2.753406 -5.382078 
51 1 2.420234 1.618610 0.835836 -0.890726 -0.458805 0.369282 5.038197 5.022235 7.036025 
52 1 1.637377 2.464441 0.816874 -0.168347 -0.108488 -0.069257 0.032499 -1.980339 2.770053 
53 1 1.620813 1.668991 1.742936 -0.466733 0.395034 1.824118 1.601529 -4.969005 -7.309151 
54 1 2.408335 2.577126 1.609674 -1.074921 1.992948 -0.702652 8.829308 -11.093452 0.671788 
55 1 2.479838 1.659400 2.581371 0.306644 0.195924 1.860026 8.844283 -4.688758 -28.777865 
56 1 1.589093 2.487594 2.437350 -1.048187 0.387271 -0.526852 4.479545 0.958495 5.902021 
57 1 1.747134 1.607139 3.260284 1.752758 -0.747405 -0.409848 -20.894721 0.431553 17.281967 
58 1 2.599193 2.457929 3.297045 2.347377 -0.066877 0.070160 -17.222915 10.444300 -3.681358 
59 1 2.476200 1.579877 4.119802 0.116616 -1.211702 0.079084 -2.232168 6.316362 -2.793422 
60 1 1.692738 2.427204 4.123127 0.949804 -0.787197 0.172201 0.942320 2.278529 -0.185521 
61 1 1.658665 3.293059 0.010547 0.286765 -0.004526 0.131174 2.006461 -2.446784 -5.228986 
62 1 2.407881 4.114991 0.002409 -1.071914 0.001233 -0.012439 8.946403 -0.771276 -3.187276 
63 1 2.456782 3.370773 0.813171 -0.340700 1.354499 -0.209774 -8.799266 -16.215476 -1.236029 
64 1 1.656026 4.173263 0.782481 0.110772 1.114805 -0.675794 -6.538542 -4.527646 8.246598 
65 1 1.635011 3.290997 1.642595 -0.306984 0.092503 -0.091863 -6.632209 6.786303 -1.527289 
66 1 2.436471 4.078806 1.626353 -0.579802 -0.579502 -0.378133 3.391213 8.050743 0.113874 
67 1 2.479832 3.337845 2.413780 0.212193 0.856874 -0.990295 -0.988846 -4.206316 6.760058 
68 1 1.646359 4.117397 2.455404 0.009765 0.121980 -0.272103 -0.389753 3.096789 -0.731957 
69 1 1.666150 3.294773 3.238020 0.370553 0.005358 -1.011568 -2.987318 -4.201582 2.662504 
70 1 2.420454 4.052456 3.297181 -0.758567 -1.151269 0.030361 12.887828 4.976587 -6.755134 
71 1 2.481027 3.224131 4.116138 0.262202 -1.261645 0.063310 0.446518 4.782571 1.360177 
72 1 1.743028 4.089907 4.098141 1.623260 -0.714605 -0.174295 -21.178836 -17.295052 10.709343 
73 1 3.302720 -0.043759 -0.027963 0.212778 -0.814186 -0.529038 -0.879017 3.495589 2.103847 
74 1 4.118507 0.829116 -0.056397 0.118162 0.179424 -0.945683 2.356145 3.787836 11.687634 
75 1 4.121704 0.005258 0.800939 0.073267 0.073889 -0.433136 -4.762993 -2.095002 -0.021394 
76 1 3.230653 0.827301 0.807204 -1.098429 0.011373 -0.288550 6.605435 -5.107998 1.950663 
77 1 3.354963 -0.061687 1.620136 1.187249 -1.137145 -0.553353 -4.222559 5.632051 -3.330612 
78 1 4.079024 0.887469 1.651661 -0.677006 1.177954 0.062879 2.060869 -7.475297 -3.477359 
79 1 4.119022 0.094013 2.469220 -0.025693 1.630358 0.023314 -10.845226 -17.690178 0.306361 
80 1 3.273832 0.787400 2.562532 -0.085835 -0.560515 1.646273 20.550100 10.459060 -16.224231 
81 1 3.371728 -0.056190 3.365617 1.443591 -0.934727 1.424895 -11.312140 12.881438 -4.507162 
82 1 4.182248 0.928087 3.244255 1.155127 1.855356 -0.868667 -14.660269 -16.426946 4.072425 
83 1 4.127922 0.066996 4.128388 0.275222 1.198891 0.218526 -0.514153 -9.272509 -4.088678 
84 1 3.362322 0.921376 4.110918 1.078981 1.516415 -0.131186 -27.798762 -33.959647 -3.930660 
85 1 3.239486 1.581726 0.010522 -0.855537 -1.030448 0.249765 12.901444 16.995789 2.814638 
86 1 4.093942 2.428619 0.000060 -0.404771 -0.661156 -0.164171 -0.377983 10.544446 -12.570115 
87 1 4.157771 1.748269 0.765759 0.690347 1.714533 -0.979544 -12.686326 -23.777854 11.885505 
88 1 3.298559 2.479659 0.836428 0.094037 0.228818 0.266720 -2.974949 0.387626 -0.402730 
89 1 3.248294 1.578250 1.646091 -0.883994 -1.241028 0.022694 -2.232279 6.171748 1.019574 
90 1 4.090654 2.563796 1.595445 -0.381542 1.676613 -0.863400 5.442753 -14.844041 9.380428 
91 1 4.173718 1.649694 2.421977 1.121838 0.170397 -0.914185 -3.340716 6.098486 1.001790 
92 1 3.273110 2.412249 2.419250 -0.306127 -1.052909 -0.991673 3.725821 4.001093 -1.023391 
93 1 3.258123 1.640851 3.296832 -0.458390 -0.127615 0.112245 14.234072 -3.092321 1.082460 
94 1 4.120913 2.466511 3.242287 0.029325 -0.046893 -0.899471 -6.869246 -0.667569 5.203909 
95 1 4.080712 1.585919 4.064151 -0.341977 -0.772431 -0.895770 27.022735 32.923953 6.244643 
96 1 3.294849 2.472968 4.076897 0.164554 0.033658 -0.610639 7.438672 -3.492734 9.643095 
97 1 3.301679 3.292856 0.005139 0.206012 -0.025861 0.062113 -0.041203 -4.111070 -3.218764 
98 1 4.229726 4.059548 0.004379 2.073237 -1.055149 0.140821 -15.262542 1.681099 4.504233 
99 1 4.235834 3.263929 0.834437 2.281684 -0.479737 0.126465 -8.001907 4.700232 -8.122091 
100 1 3.232501 4.051237 0.764522 -0.978481 -1.072681 -1.075487 13.159102 13.649691 5.567203 
101 1 3.302275 3.299466 1.673608 0.124717 0.246783 0.431568 -7.432740 5.251326 -8.704665 
102 1 4.180349 4.114897 1.700348 1.080078 0.050362 0.940510 -17.169173 2.629458 -11.037380 
103 1 4.052552 3.297425 2.416583 -1.139584 0.116163 -0.859468 6.530363 -0.502043 12.014632 
104 1 3.269117 4.224472 2.478784 -0.448168 2.108144 0.195681 -0.473167 -5.642015 0.079484 
105 1 3.258032 3.390449 3.235676 -0.631565 1.814261 -1.082923 2.061848 -10.379661 1.771799 
106 1 4.068199 4.096077 3.299309 -0.674005 -0.376413 0.063123 16.578324 -1.986391 -6.571696 
107 1 4.055103 3.295024 4.086427 -1.043522 -0.041512 -0.545015 9.015960 -7.946703 0.430690 
108 1 3.388247 4.112176 4.129005 1.740231 -0.027268 0.389573 -12.033361 1.498583 6.703123 
ITEM: TIMESTEP 
750 
ITEM: NUMBER OF ATOMS 
108 
ITEM: BOX BOUNDS pp pp pp 
0.00 4.937000 
0.00 4.937000 
0.00 4.937000 
ITEM: ATOMS id type x y z vx vy vz fx fy fz 